phonopy:
  version: 2.6.1
  frequency_unit_conversion_factor: 15.633302
  symmetry_tolerance: 1.00000e-05
  configuration:
    atom_name: "Fe Sn"
    dim: "2 2 2"
    mp: "20 20 20"
    fc_symmetry: ".TRUE."

physical_unit:
  atomic_mass: "AMU"
  length: "Angstrom"
  force_constants: "eV/Angstrom^2"

supercell_matrix:
- [   2,   0,   0 ]
- [   0,   2,   0 ]
- [   0,   0,   2 ]

space_group:
  type: "I4/mcm"
  number: 140
  Hall_symbol: "-I 4 2c"

primitive_cell:
  lattice:
  - [     6.609805333577257,     0.000000000000000,     0.000000000000000 ] # a
  - [     0.000000000000000,     6.609805333577257,     0.000000000000000 ] # b
  - [     0.000000000000000,     0.000000000000000,     5.351237092377728 ] # c
  points:
  - symbol: Fe # 1
    coordinates: [  0.000000000000000,  0.000000000000000,  0.250000000000000 ]
    mass: 55.845000
  - symbol: Fe # 2
    coordinates: [  0.000000000000000,  0.000000000000000,  0.750000000000000 ]
    mass: 55.845000
  - symbol: Fe # 3
    coordinates: [  0.500000000000000,  0.500000000000000,  0.750000000000000 ]
    mass: 55.845000
  - symbol: Fe # 4
    coordinates: [  0.500000000000000,  0.500000000000000,  0.250000000000000 ]
    mass: 55.845000
  - symbol: Sn # 5
    coordinates: [  0.162324324140450,  0.662324354140445,  0.000000000000000 ]
    mass: 118.710000
  - symbol: Sn # 6
    coordinates: [  0.837675704859556,  0.337675645859555,  0.000000000000000 ]
    mass: 118.710000
  - symbol: Sn # 7
    coordinates: [  0.337675645859555,  0.162324324140450,  0.000000000000000 ]
    mass: 118.710000
  - symbol: Sn # 8
    coordinates: [  0.662324354140445,  0.837675704859556,  0.000000000000000 ]
    mass: 118.710000
  - symbol: Sn # 9
    coordinates: [  0.837675704859556,  0.662324354140445,  0.500000000000000 ]
    mass: 118.710000
  - symbol: Sn # 10
    coordinates: [  0.162324324140450,  0.337675645859555,  0.500000000000000 ]
    mass: 118.710000
  - symbol: Sn # 11
    coordinates: [  0.662324354140445,  0.162324324140450,  0.500000000000000 ]
    mass: 118.710000
  - symbol: Sn # 12
    coordinates: [  0.337675645859555,  0.837675704859556,  0.500000000000000 ]
    mass: 118.710000
  reciprocal_lattice: # without 2pi
  - [     0.151290385954346,     0.000000000000000,     0.000000000000000 ] # a*
  - [     0.000000000000000,     0.151290385954346,     0.000000000000000 ] # b*
  - [     0.000000000000000,     0.000000000000000,     0.186872676866513 ] # c*

unit_cell:
  lattice:
  - [     6.609805333577257,    -0.000000000000000,    -0.000000000000000 ] # a
  - [     0.000000000000000,     6.609805333577257,     0.000000000000000 ] # b
  - [     0.000000000000000,     0.000000000000000,     5.351237092377728 ] # c
  points:
  - symbol: Fe # 1
    coordinates: [ -0.000000000000000,  0.000000000000000,  0.250000000000000 ]
    mass: 55.845000
    reduced_to: 1
  - symbol: Fe # 2
    coordinates: [ -0.000000000000000,  0.000000000000000,  0.750000000000000 ]
    mass: 55.845000
    reduced_to: 2
  - symbol: Fe # 3
    coordinates: [  0.500000000000000,  0.500000000000000,  0.750000000000000 ]
    mass: 55.845000
    reduced_to: 3
  - symbol: Fe # 4
    coordinates: [  0.500000000000000,  0.500000000000000,  0.250000000000000 ]
    mass: 55.845000
    reduced_to: 4
  - symbol: Sn # 5
    coordinates: [  0.162324324140450,  0.662324354140445,  0.000000000000000 ]
    mass: 118.710000
    reduced_to: 5
  - symbol: Sn # 6
    coordinates: [  0.837675704859556,  0.337675645859555, -0.000000000000000 ]
    mass: 118.710000
    reduced_to: 6
  - symbol: Sn # 7
    coordinates: [  0.337675645859555,  0.162324324140450, -0.000000000000000 ]
    mass: 118.710000
    reduced_to: 7
  - symbol: Sn # 8
    coordinates: [  0.662324354140445,  0.837675704859556,  0.000000000000000 ]
    mass: 118.710000
    reduced_to: 8
  - symbol: Sn # 9
    coordinates: [  0.837675704859556,  0.662324354140445,  0.500000000000000 ]
    mass: 118.710000
    reduced_to: 9
  - symbol: Sn # 10
    coordinates: [  0.162324324140450,  0.337675645859555,  0.500000000000000 ]
    mass: 118.710000
    reduced_to: 10
  - symbol: Sn # 11
    coordinates: [  0.662324354140445,  0.162324324140450,  0.500000000000000 ]
    mass: 118.710000
    reduced_to: 11
  - symbol: Sn # 12
    coordinates: [  0.337675645859555,  0.837675704859556,  0.500000000000000 ]
    mass: 118.710000
    reduced_to: 12

supercell:
  lattice:
  - [    13.219610667154514,     0.000000000000000,     0.000000000000000 ] # a
  - [     0.000000000000000,    13.219610667154514,     0.000000000000000 ] # b
  - [     0.000000000000000,     0.000000000000000,    10.702474184755456 ] # c
  points:
  - symbol: Fe # 1
    coordinates: [  0.000000000000000,  0.000000000000000,  0.125000000000000 ]
    mass: 55.845000
    reduced_to: 1
  - symbol: Fe # 2
    coordinates: [  0.500000000000000,  0.000000000000000,  0.125000000000000 ]
    mass: 55.845000
    reduced_to: 1
  - symbol: Fe # 3
    coordinates: [  0.000000000000000,  0.500000000000000,  0.125000000000000 ]
    mass: 55.845000
    reduced_to: 1
  - symbol: Fe # 4
    coordinates: [  0.500000000000000,  0.500000000000000,  0.125000000000000 ]
    mass: 55.845000
    reduced_to: 1
  - symbol: Fe # 5
    coordinates: [  0.000000000000000,  0.000000000000000,  0.625000000000000 ]
    mass: 55.845000
    reduced_to: 1
  - symbol: Fe # 6
    coordinates: [  0.500000000000000,  0.000000000000000,  0.625000000000000 ]
    mass: 55.845000
    reduced_to: 1
  - symbol: Fe # 7
    coordinates: [  0.000000000000000,  0.500000000000000,  0.625000000000000 ]
    mass: 55.845000
    reduced_to: 1
  - symbol: Fe # 8
    coordinates: [  0.500000000000000,  0.500000000000000,  0.625000000000000 ]
    mass: 55.845000
    reduced_to: 1
  - symbol: Fe # 9
    coordinates: [  0.000000000000000,  0.000000000000000,  0.375000000000000 ]
    mass: 55.845000
    reduced_to: 9
  - symbol: Fe # 10
    coordinates: [  0.500000000000000,  0.000000000000000,  0.375000000000000 ]
    mass: 55.845000
    reduced_to: 9
  - symbol: Fe # 11
    coordinates: [  0.000000000000000,  0.500000000000000,  0.375000000000000 ]
    mass: 55.845000
    reduced_to: 9
  - symbol: Fe # 12
    coordinates: [  0.500000000000000,  0.500000000000000,  0.375000000000000 ]
    mass: 55.845000
    reduced_to: 9
  - symbol: Fe # 13
    coordinates: [  0.000000000000000,  0.000000000000000,  0.875000000000000 ]
    mass: 55.845000
    reduced_to: 9
  - symbol: Fe # 14
    coordinates: [  0.500000000000000,  0.000000000000000,  0.875000000000000 ]
    mass: 55.845000
    reduced_to: 9
  - symbol: Fe # 15
    coordinates: [  0.000000000000000,  0.500000000000000,  0.875000000000000 ]
    mass: 55.845000
    reduced_to: 9
  - symbol: Fe # 16
    coordinates: [  0.500000000000000,  0.500000000000000,  0.875000000000000 ]
    mass: 55.845000
    reduced_to: 9
  - symbol: Fe # 17
    coordinates: [  0.250000000000000,  0.250000000000000,  0.375000000000000 ]
    mass: 55.845000
    reduced_to: 17
  - symbol: Fe # 18
    coordinates: [  0.750000000000000,  0.250000000000000,  0.375000000000000 ]
    mass: 55.845000
    reduced_to: 17
  - symbol: Fe # 19
    coordinates: [  0.250000000000000,  0.750000000000000,  0.375000000000000 ]
    mass: 55.845000
    reduced_to: 17
  - symbol: Fe # 20
    coordinates: [  0.750000000000000,  0.750000000000000,  0.375000000000000 ]
    mass: 55.845000
    reduced_to: 17
  - symbol: Fe # 21
    coordinates: [  0.250000000000000,  0.250000000000000,  0.875000000000000 ]
    mass: 55.845000
    reduced_to: 17
  - symbol: Fe # 22
    coordinates: [  0.750000000000000,  0.250000000000000,  0.875000000000000 ]
    mass: 55.845000
    reduced_to: 17
  - symbol: Fe # 23
    coordinates: [  0.250000000000000,  0.750000000000000,  0.875000000000000 ]
    mass: 55.845000
    reduced_to: 17
  - symbol: Fe # 24
    coordinates: [  0.750000000000000,  0.750000000000000,  0.875000000000000 ]
    mass: 55.845000
    reduced_to: 17
  - symbol: Fe # 25
    coordinates: [  0.250000000000000,  0.250000000000000,  0.125000000000000 ]
    mass: 55.845000
    reduced_to: 25
  - symbol: Fe # 26
    coordinates: [  0.750000000000000,  0.250000000000000,  0.125000000000000 ]
    mass: 55.845000
    reduced_to: 25
  - symbol: Fe # 27
    coordinates: [  0.250000000000000,  0.750000000000000,  0.125000000000000 ]
    mass: 55.845000
    reduced_to: 25
  - symbol: Fe # 28
    coordinates: [  0.750000000000000,  0.750000000000000,  0.125000000000000 ]
    mass: 55.845000
    reduced_to: 25
  - symbol: Fe # 29
    coordinates: [  0.250000000000000,  0.250000000000000,  0.625000000000000 ]
    mass: 55.845000
    reduced_to: 25
  - symbol: Fe # 30
    coordinates: [  0.750000000000000,  0.250000000000000,  0.625000000000000 ]
    mass: 55.845000
    reduced_to: 25
  - symbol: Fe # 31
    coordinates: [  0.250000000000000,  0.750000000000000,  0.625000000000000 ]
    mass: 55.845000
    reduced_to: 25
  - symbol: Fe # 32
    coordinates: [  0.750000000000000,  0.750000000000000,  0.625000000000000 ]
    mass: 55.845000
    reduced_to: 25
  - symbol: Sn # 33
    coordinates: [  0.081162162070225,  0.331162177070223,  0.000000000000000 ]
    mass: 118.710000
    reduced_to: 33
  - symbol: Sn # 34
    coordinates: [  0.581162162070225,  0.331162177070223,  0.000000000000000 ]
    mass: 118.710000
    reduced_to: 33
  - symbol: Sn # 35
    coordinates: [  0.081162162070225,  0.831162177070223,  0.000000000000000 ]
    mass: 118.710000
    reduced_to: 33
  - symbol: Sn # 36
    coordinates: [  0.581162162070225,  0.831162177070223,  0.000000000000000 ]
    mass: 118.710000
    reduced_to: 33
  - symbol: Sn # 37
    coordinates: [  0.081162162070225,  0.331162177070223,  0.500000000000000 ]
    mass: 118.710000
    reduced_to: 33
  - symbol: Sn # 38
    coordinates: [  0.581162162070225,  0.331162177070223,  0.500000000000000 ]
    mass: 118.710000
    reduced_to: 33
  - symbol: Sn # 39
    coordinates: [  0.081162162070225,  0.831162177070223,  0.500000000000000 ]
    mass: 118.710000
    reduced_to: 33
  - symbol: Sn # 40
    coordinates: [  0.581162162070225,  0.831162177070223,  0.500000000000000 ]
    mass: 118.710000
    reduced_to: 33
  - symbol: Sn # 41
    coordinates: [  0.418837852429778,  0.168837822929778,  0.000000000000000 ]
    mass: 118.710000
    reduced_to: 41
  - symbol: Sn # 42
    coordinates: [  0.918837852429778,  0.168837822929778,  0.000000000000000 ]
    mass: 118.710000
    reduced_to: 41
  - symbol: Sn # 43
    coordinates: [  0.418837852429778,  0.668837822929778,  0.000000000000000 ]
    mass: 118.710000
    reduced_to: 41
  - symbol: Sn # 44
    coordinates: [  0.918837852429778,  0.668837822929778,  0.000000000000000 ]
    mass: 118.710000
    reduced_to: 41
  - symbol: Sn # 45
    coordinates: [  0.418837852429778,  0.168837822929778,  0.500000000000000 ]
    mass: 118.710000
    reduced_to: 41
  - symbol: Sn # 46
    coordinates: [  0.918837852429778,  0.168837822929778,  0.500000000000000 ]
    mass: 118.710000
    reduced_to: 41
  - symbol: Sn # 47
    coordinates: [  0.418837852429778,  0.668837822929778,  0.500000000000000 ]
    mass: 118.710000
    reduced_to: 41
  - symbol: Sn # 48
    coordinates: [  0.918837852429778,  0.668837822929778,  0.500000000000000 ]
    mass: 118.710000
    reduced_to: 41
  - symbol: Sn # 49
    coordinates: [  0.168837822929778,  0.081162162070225,  0.000000000000000 ]
    mass: 118.710000
    reduced_to: 49
  - symbol: Sn # 50
    coordinates: [  0.668837822929778,  0.081162162070225,  0.000000000000000 ]
    mass: 118.710000
    reduced_to: 49
  - symbol: Sn # 51
    coordinates: [  0.168837822929778,  0.581162162070225,  0.000000000000000 ]
    mass: 118.710000
    reduced_to: 49
  - symbol: Sn # 52
    coordinates: [  0.668837822929778,  0.581162162070225,  0.000000000000000 ]
    mass: 118.710000
    reduced_to: 49
  - symbol: Sn # 53
    coordinates: [  0.168837822929778,  0.081162162070225,  0.500000000000000 ]
    mass: 118.710000
    reduced_to: 49
  - symbol: Sn # 54
    coordinates: [  0.668837822929778,  0.081162162070225,  0.500000000000000 ]
    mass: 118.710000
    reduced_to: 49
  - symbol: Sn # 55
    coordinates: [  0.168837822929778,  0.581162162070225,  0.500000000000000 ]
    mass: 118.710000
    reduced_to: 49
  - symbol: Sn # 56
    coordinates: [  0.668837822929778,  0.581162162070225,  0.500000000000000 ]
    mass: 118.710000
    reduced_to: 49
  - symbol: Sn # 57
    coordinates: [  0.331162177070223,  0.418837852429778,  0.000000000000000 ]
    mass: 118.710000
    reduced_to: 57
  - symbol: Sn # 58
    coordinates: [  0.831162177070223,  0.418837852429778,  0.000000000000000 ]
    mass: 118.710000
    reduced_to: 57
  - symbol: Sn # 59
    coordinates: [  0.331162177070223,  0.918837852429778,  0.000000000000000 ]
    mass: 118.710000
    reduced_to: 57
  - symbol: Sn # 60
    coordinates: [  0.831162177070223,  0.918837852429778,  0.000000000000000 ]
    mass: 118.710000
    reduced_to: 57
  - symbol: Sn # 61
    coordinates: [  0.331162177070223,  0.418837852429778,  0.500000000000000 ]
    mass: 118.710000
    reduced_to: 57
  - symbol: Sn # 62
    coordinates: [  0.831162177070223,  0.418837852429778,  0.500000000000000 ]
    mass: 118.710000
    reduced_to: 57
  - symbol: Sn # 63
    coordinates: [  0.331162177070223,  0.918837852429778,  0.500000000000000 ]
    mass: 118.710000
    reduced_to: 57
  - symbol: Sn # 64
    coordinates: [  0.831162177070223,  0.918837852429778,  0.500000000000000 ]
    mass: 118.710000
    reduced_to: 57
  - symbol: Sn # 65
    coordinates: [  0.418837852429778,  0.331162177070223,  0.250000000000000 ]
    mass: 118.710000
    reduced_to: 65
  - symbol: Sn # 66
    coordinates: [  0.918837852429778,  0.331162177070223,  0.250000000000000 ]
    mass: 118.710000
    reduced_to: 65
  - symbol: Sn # 67
    coordinates: [  0.418837852429778,  0.831162177070223,  0.250000000000000 ]
    mass: 118.710000
    reduced_to: 65
  - symbol: Sn # 68
    coordinates: [  0.918837852429778,  0.831162177070223,  0.250000000000000 ]
    mass: 118.710000
    reduced_to: 65
  - symbol: Sn # 69
    coordinates: [  0.418837852429778,  0.331162177070223,  0.750000000000000 ]
    mass: 118.710000
    reduced_to: 65
  - symbol: Sn # 70
    coordinates: [  0.918837852429778,  0.331162177070223,  0.750000000000000 ]
    mass: 118.710000
    reduced_to: 65
  - symbol: Sn # 71
    coordinates: [  0.418837852429778,  0.831162177070223,  0.750000000000000 ]
    mass: 118.710000
    reduced_to: 65
  - symbol: Sn # 72
    coordinates: [  0.918837852429778,  0.831162177070223,  0.750000000000000 ]
    mass: 118.710000
    reduced_to: 65
  - symbol: Sn # 73
    coordinates: [  0.081162162070225,  0.168837822929778,  0.250000000000000 ]
    mass: 118.710000
    reduced_to: 73
  - symbol: Sn # 74
    coordinates: [  0.581162162070225,  0.168837822929778,  0.250000000000000 ]
    mass: 118.710000
    reduced_to: 73
  - symbol: Sn # 75
    coordinates: [  0.081162162070225,  0.668837822929778,  0.250000000000000 ]
    mass: 118.710000
    reduced_to: 73
  - symbol: Sn # 76
    coordinates: [  0.581162162070225,  0.668837822929778,  0.250000000000000 ]
    mass: 118.710000
    reduced_to: 73
  - symbol: Sn # 77
    coordinates: [  0.081162162070225,  0.168837822929778,  0.750000000000000 ]
    mass: 118.710000
    reduced_to: 73
  - symbol: Sn # 78
    coordinates: [  0.581162162070225,  0.168837822929778,  0.750000000000000 ]
    mass: 118.710000
    reduced_to: 73
  - symbol: Sn # 79
    coordinates: [  0.081162162070225,  0.668837822929778,  0.750000000000000 ]
    mass: 118.710000
    reduced_to: 73
  - symbol: Sn # 80
    coordinates: [  0.581162162070225,  0.668837822929778,  0.750000000000000 ]
    mass: 118.710000
    reduced_to: 73
  - symbol: Sn # 81
    coordinates: [  0.331162177070223,  0.081162162070225,  0.250000000000000 ]
    mass: 118.710000
    reduced_to: 81
  - symbol: Sn # 82
    coordinates: [  0.831162177070223,  0.081162162070225,  0.250000000000000 ]
    mass: 118.710000
    reduced_to: 81
  - symbol: Sn # 83
    coordinates: [  0.331162177070223,  0.581162162070225,  0.250000000000000 ]
    mass: 118.710000
    reduced_to: 81
  - symbol: Sn # 84
    coordinates: [  0.831162177070223,  0.581162162070225,  0.250000000000000 ]
    mass: 118.710000
    reduced_to: 81
  - symbol: Sn # 85
    coordinates: [  0.331162177070223,  0.081162162070225,  0.750000000000000 ]
    mass: 118.710000
    reduced_to: 81
  - symbol: Sn # 86
    coordinates: [  0.831162177070223,  0.081162162070225,  0.750000000000000 ]
    mass: 118.710000
    reduced_to: 81
  - symbol: Sn # 87
    coordinates: [  0.331162177070223,  0.581162162070225,  0.750000000000000 ]
    mass: 118.710000
    reduced_to: 81
  - symbol: Sn # 88
    coordinates: [  0.831162177070223,  0.581162162070225,  0.750000000000000 ]
    mass: 118.710000
    reduced_to: 81
  - symbol: Sn # 89
    coordinates: [  0.168837822929778,  0.418837852429778,  0.250000000000000 ]
    mass: 118.710000
    reduced_to: 89
  - symbol: Sn # 90
    coordinates: [  0.668837822929778,  0.418837852429778,  0.250000000000000 ]
    mass: 118.710000
    reduced_to: 89
  - symbol: Sn # 91
    coordinates: [  0.168837822929778,  0.918837852429778,  0.250000000000000 ]
    mass: 118.710000
    reduced_to: 89
  - symbol: Sn # 92
    coordinates: [  0.668837822929778,  0.918837852429778,  0.250000000000000 ]
    mass: 118.710000
    reduced_to: 89
  - symbol: Sn # 93
    coordinates: [  0.168837822929778,  0.418837852429778,  0.750000000000000 ]
    mass: 118.710000
    reduced_to: 89
  - symbol: Sn # 94
    coordinates: [  0.668837822929778,  0.418837852429778,  0.750000000000000 ]
    mass: 118.710000
    reduced_to: 89
  - symbol: Sn # 95
    coordinates: [  0.168837822929778,  0.918837852429778,  0.750000000000000 ]
    mass: 118.710000
    reduced_to: 89
  - symbol: Sn # 96
    coordinates: [  0.668837822929778,  0.918837852429778,  0.750000000000000 ]
    mass: 118.710000
    reduced_to: 89
